-- This reservoir simulation deck is made available under the Open Database
-- License: http://opendatacommons.org/licenses/odbl/1.0/. Any rights in
-- individual contents of the database are licensed under the Database Contents
-- License: http://opendatacommons.org/licenses/dbcl/1.0/

-- Copyright (C) 2020 Equinor


SPECGRID
 30 15 13 1 F / 

COORD
  2000.0000  2000.0000  1500.0000   2000.0000  2000.0000  1550.0000 
  2100.0000  2000.0000  1500.0000   2100.0000  2000.0000  1550.0000 
  2200.0000  2000.0000  1500.0000   2200.0000  2000.0000  1550.0000 
  2300.0000  2000.0000  1500.0000   2300.0000  2000.0000  1550.0000 
  2400.0000  2000.0000  1500.0000   2400.0000  2000.0000  1550.0000 
  2500.0000  2000.0000  1500.0000   2500.0000  2000.0000  1550.0000 
  2600.0000  2000.0000  1500.0000   2600.0000  2000.0000  1550.0000 
  2700.0000  2000.0000  1500.0000   2700.0000  2000.0000  1550.0000 
  2800.0000  2000.0000  1500.0000   2800.0000  2000.0000  1550.0000 
  2900.0000  2000.0000  1500.0000   2900.0000  2000.0000  1550.0000 
  3000.0000  2000.0000  1500.0000   3000.0000  2000.0000  1550.0000 
  3100.0000  2000.0000  1500.0000   3100.0000  2000.0000  1550.0000 
  3200.0000  2000.0000  1500.0000   3200.0000  2000.0000  1550.0000 
  3300.0000  2000.0000  1500.0000   3300.0000  2000.0000  1550.0000 
  3400.0000  2000.0000  1500.0000   3400.0000  2000.0000  1550.0000 
  3500.0000  2000.0000  1500.0000   3500.0000  2000.0000  1550.0000 
  3600.0000  2000.0000  1500.0000   3600.0000  2000.0000  1550.0000 
  3700.0000  2000.0000  1500.0000   3700.0000  2000.0000  1550.0000 
  3800.0000  2000.0000  1500.0000   3800.0000  2000.0000  1550.0000 
  3900.0000  2000.0000  1500.0000   3900.0000  2000.0000  1550.0000 
  4000.0000  2000.0000  1502.8571   4000.0000  2000.0000  1552.8571 
  4100.0000  2000.0000  1505.7143   4100.0000  2000.0000  1555.7143 
  4200.0000  2000.0000  1508.5714   4200.0000  2000.0000  1558.5714 
  4300.0000  2000.0000  1511.4286   4300.0000  2000.0000  1561.4286 
  4400.0000  2000.0000  1514.2857   4400.0000  2000.0000  1564.2857 
  4500.0000  2000.0000  1517.1429   4500.0000  2000.0000  1567.1429 
  4600.0000  2000.0000  1520.0000   4600.0000  2000.0000  1570.0000 
  4700.0000  2000.0000  1520.5000   4700.0000  2000.0000  1570.5000 
  4800.0000  2000.0000  1521.0000   4800.0000  2000.0000  1571.0000 
  4900.0000  2000.0000  1521.5000   4900.0000  2000.0000  1571.5000 
  5000.0000  2000.0000  1522.0000   5000.0000  2000.0000  1572.0000 
  2000.0000  2100.0000  1500.0000   2000.0000  2100.0000  1550.0000 
  2100.0000  2100.0000  1500.0000   2100.0000  2100.0000  1550.0000 
  2200.0000  2100.0000  1500.0000   2200.0000  2100.0000  1550.0000 
  2300.0000  2100.0000  1500.0000   2300.0000  2100.0000  1550.0000 
  2400.0000  2100.0000  1500.0000   2400.0000  2100.0000  1550.0000 
  2500.0000  2100.0000  1500.0000   2500.0000  2100.0000  1550.0000 
  2600.0000  2100.0000  1500.0000   2600.0000  2100.0000  1550.0000 
  2700.0000  2100.0000  1500.0000   2700.0000  2100.0000  1550.0000 
  2800.0000  2100.0000  1500.0000   2800.0000  2100.0000  1550.0000 
  2900.0000  2100.0000  1500.0000   2900.0000  2100.0000  1550.0000 
  3000.0000  2100.0000  1500.0000   3000.0000  2100.0000  1550.0000 
  3100.0000  2100.0000  1500.0000   3100.0000  2100.0000  1550.0000 
  3200.0000  2100.0000  1500.0000   3200.0000  2100.0000  1550.0000 
  3300.0000  2100.0000  1500.0000   3300.0000  2100.0000  1550.0000 
  3400.0000  2100.0000  1500.0000   3400.0000  2100.0000  1550.0000 
  3500.0000  2100.0000  1500.0000   3500.0000  2100.0000  1550.0000 
  3600.0000  2100.0000  1500.0000   3600.0000  2100.0000  1550.0000 
  3700.0000  2100.0000  1500.0000   3700.0000  2100.0000  1550.0000 
  3800.0000  2100.0000  1500.0000   3800.0000  2100.0000  1550.0000 
  3900.0000  2100.0000  1500.0000   3900.0000  2100.0000  1550.0000 
  4000.0000  2100.0000  1502.8571   4000.0000  2100.0000  1552.8571 
  4100.0000  2100.0000  1505.7143   4100.0000  2100.0000  1555.7143 
  4200.0000  2100.0000  1508.5714   4200.0000  2100.0000  1558.5714 
  4300.0000  2100.0000  1511.4286   4300.0000  2100.0000  1561.4286 
  4400.0000  2100.0000  1514.2857   4400.0000  2100.0000  1564.2857 
  4500.0000  2100.0000  1517.1429   4500.0000  2100.0000  1567.1429 
  4600.0000  2100.0000  1520.0000   4600.0000  2100.0000  1570.0000 
  4700.0000  2100.0000  1520.5000   4700.0000  2100.0000  1570.5000 
  4800.0000  2100.0000  1521.0000   4800.0000  2100.0000  1571.0000 
  4900.0000  2100.0000  1521.5000   4900.0000  2100.0000  1571.5000 
  5000.0000  2100.0000  1522.0000   5000.0000  2100.0000  1572.0000 
  2000.0000  2200.0000  1500.0000   2000.0000  2200.0000  1550.0000 
  2100.0000  2200.0000  1500.0000   2100.0000  2200.0000  1550.0000 
  2200.0000  2200.0000  1500.0000   2200.0000  2200.0000  1550.0000 
  2300.0000  2200.0000  1500.0000   2300.0000  2200.0000  1550.0000 
  2400.0000  2200.0000  1500.0000   2400.0000  2200.0000  1550.0000 
  2500.0000  2200.0000  1500.0000   2500.0000  2200.0000  1550.0000 
  2600.0000  2200.0000  1500.0000   2600.0000  2200.0000  1550.0000 
  2700.0000  2200.0000  1500.0000   2700.0000  2200.0000  1550.0000 
  2800.0000  2200.0000  1500.0000   2800.0000  2200.0000  1550.0000 
  2900.0000  2200.0000  1500.0000   2900.0000  2200.0000  1550.0000 
  3000.0000  2200.0000  1500.0000   3000.0000  2200.0000  1550.0000 
  3100.0000  2200.0000  1500.0000   3100.0000  2200.0000  1550.0000 
  3200.0000  2200.0000  1500.0000   3200.0000  2200.0000  1550.0000 
  3300.0000  2200.0000  1500.0000   3300.0000  2200.0000  1550.0000 
  3400.0000  2200.0000  1500.0000   3400.0000  2200.0000  1550.0000 
  3500.0000  2200.0000  1500.0000   3500.0000  2200.0000  1550.0000 
  3600.0000  2200.0000  1500.0000   3600.0000  2200.0000  1550.0000 
  3700.0000  2200.0000  1500.0000   3700.0000  2200.0000  1550.0000 
  3800.0000  2200.0000  1500.0000   3800.0000  2200.0000  1550.0000 
  3900.0000  2200.0000  1500.0000   3900.0000  2200.0000  1550.0000 
  4000.0000  2200.0000  1502.8571   4000.0000  2200.0000  1552.8571 
  4100.0000  2200.0000  1505.7143   4100.0000  2200.0000  1555.7143 
  4200.0000  2200.0000  1508.5714   4200.0000  2200.0000  1558.5714 
  4300.0000  2200.0000  1511.4286   4300.0000  2200.0000  1561.4286 
  4400.0000  2200.0000  1514.2857   4400.0000  2200.0000  1564.2857 
  4500.0000  2200.0000  1517.1429   4500.0000  2200.0000  1567.1429 
  4600.0000  2200.0000  1520.0000   4600.0000  2200.0000  1570.0000 
  4700.0000  2200.0000  1520.5000   4700.0000  2200.0000  1570.5000 
  4800.0000  2200.0000  1521.0000   4800.0000  2200.0000  1571.0000 
  4900.0000  2200.0000  1521.5000   4900.0000  2200.0000  1571.5000 
  5000.0000  2200.0000  1522.0000   5000.0000  2200.0000  1572.0000 
  2000.0000  2300.0000  1500.0000   2000.0000  2300.0000  1550.0000 
  2100.0000  2300.0000  1500.0000   2100.0000  2300.0000  1550.0000 
  2200.0000  2300.0000  1500.0000   2200.0000  2300.0000  1550.0000 
  2300.0000  2300.0000  1500.0000   2300.0000  2300.0000  1550.0000 
  2400.0000  2300.0000  1500.0000   2400.0000  2300.0000  1550.0000 
  2500.0000  2300.0000  1500.0000   2500.0000  2300.0000  1550.0000 
  2600.0000  2300.0000  1500.0000   2600.0000  2300.0000  1550.0000 
  2700.0000  2300.0000  1500.0000   2700.0000  2300.0000  1550.0000 
  2800.0000  2300.0000  1500.0000   2800.0000  2300.0000  1550.0000 
  2900.0000  2300.0000  1500.0000   2900.0000  2300.0000  1550.0000 
  3000.0000  2300.0000  1500.0000   3000.0000  2300.0000  1550.0000 
  3100.0000  2300.0000  1500.0000   3100.0000  2300.0000  1550.0000 
  3200.0000  2300.0000  1500.0000   3200.0000  2300.0000  1550.0000 
  3300.0000  2300.0000  1500.0000   3300.0000  2300.0000  1550.0000 
  3400.0000  2300.0000  1500.0000   3400.0000  2300.0000  1550.0000 
  3500.0000  2300.0000  1500.0000   3500.0000  2300.0000  1550.0000 
  3600.0000  2300.0000  1500.0000   3600.0000  2300.0000  1550.0000 
  3700.0000  2300.0000  1500.0000   3700.0000  2300.0000  1550.0000 
  3800.0000  2300.0000  1500.0000   3800.0000  2300.0000  1550.0000 
  3900.0000  2300.0000  1500.0000   3900.0000  2300.0000  1550.0000 
  4000.0000  2300.0000  1502.8571   4000.0000  2300.0000  1552.8571 
  4100.0000  2300.0000  1505.7143   4100.0000  2300.0000  1555.7143 
  4200.0000  2300.0000  1508.5714   4200.0000  2300.0000  1558.5714 
  4300.0000  2300.0000  1511.4286   4300.0000  2300.0000  1561.4286 
  4400.0000  2300.0000  1514.2857   4400.0000  2300.0000  1564.2857 
  4500.0000  2300.0000  1517.1429   4500.0000  2300.0000  1567.1429 
  4600.0000  2300.0000  1520.0000   4600.0000  2300.0000  1570.0000 
  4700.0000  2300.0000  1520.5000   4700.0000  2300.0000  1570.5000 
  4800.0000  2300.0000  1521.0000   4800.0000  2300.0000  1571.0000 
  4900.0000  2300.0000  1521.5000   4900.0000  2300.0000  1571.5000 
  5000.0000  2300.0000  1522.0000   5000.0000  2300.0000  1572.0000 
  2000.0000  2400.0000  1500.0000   2000.0000  2400.0000  1550.0000 
  2100.0000  2400.0000  1500.0000   2100.0000  2400.0000  1550.0000 
  2200.0000  2400.0000  1500.0000   2200.0000  2400.0000  1550.0000 
  2300.0000  2400.0000  1500.0000   2300.0000  2400.0000  1550.0000 
  2400.0000  2400.0000  1500.0000   2400.0000  2400.0000  1550.0000 
  2500.0000  2400.0000  1500.0000   2500.0000  2400.0000  1550.0000 
  2600.0000  2400.0000  1500.0000   2600.0000  2400.0000  1550.0000 
  2700.0000  2400.0000  1500.0000   2700.0000  2400.0000  1550.0000 
  2800.0000  2400.0000  1500.0000   2800.0000  2400.0000  1550.0000 
  2900.0000  2400.0000  1500.0000   2900.0000  2400.0000  1550.0000 
  3000.0000  2400.0000  1500.0000   3000.0000  2400.0000  1550.0000 
  3100.0000  2400.0000  1500.0000   3100.0000  2400.0000  1550.0000 
  3200.0000  2400.0000  1500.0000   3200.0000  2400.0000  1550.0000 
  3300.0000  2400.0000  1500.0000   3300.0000  2400.0000  1550.0000 
  3400.0000  2400.0000  1500.0000   3400.0000  2400.0000  1550.0000 
  3500.0000  2400.0000  1500.0000   3500.0000  2400.0000  1550.0000 
  3600.0000  2400.0000  1500.0000   3600.0000  2400.0000  1550.0000 
  3700.0000  2400.0000  1500.0000   3700.0000  2400.0000  1550.0000 
  3800.0000  2400.0000  1500.0000   3800.0000  2400.0000  1550.0000 
  3900.0000  2400.0000  1500.0000   3900.0000  2400.0000  1550.0000 
  4000.0000  2400.0000  1502.8571   4000.0000  2400.0000  1552.8571 
  4100.0000  2400.0000  1505.7143   4100.0000  2400.0000  1555.7143 
  4200.0000  2400.0000  1508.5714   4200.0000  2400.0000  1558.5714 
  4300.0000  2400.0000  1511.4286   4300.0000  2400.0000  1561.4286 
  4400.0000  2400.0000  1514.2857   4400.0000  2400.0000  1564.2857 
  4500.0000  2400.0000  1517.1429   4500.0000  2400.0000  1567.1429 
  4600.0000  2400.0000  1520.0000   4600.0000  2400.0000  1570.0000 
  4700.0000  2400.0000  1520.5000   4700.0000  2400.0000  1570.5000 
  4800.0000  2400.0000  1521.0000   4800.0000  2400.0000  1571.0000 
  4900.0000  2400.0000  1521.5000   4900.0000  2400.0000  1571.5000 
  5000.0000  2400.0000  1522.0000   5000.0000  2400.0000  1572.0000 
  2000.0000  2500.0000  1500.0000   2000.0000  2500.0000  1550.0000 
  2100.0000  2500.0000  1500.0000   2100.0000  2500.0000  1550.0000 
  2200.0000  2500.0000  1500.0000   2200.0000  2500.0000  1550.0000 
  2300.0000  2500.0000  1500.0000   2300.0000  2500.0000  1550.0000 
  2400.0000  2500.0000  1500.0000   2400.0000  2500.0000  1550.0000 
  2500.0000  2500.0000  1500.0000   2500.0000  2500.0000  1550.0000 
  2600.0000  2500.0000  1500.0000   2600.0000  2500.0000  1550.0000 
  2700.0000  2500.0000  1500.0000   2700.0000  2500.0000  1550.0000 
  2800.0000  2500.0000  1500.0000   2800.0000  2500.0000  1550.0000 
  2900.0000  2500.0000  1500.0000   2900.0000  2500.0000  1550.0000 
  3000.0000  2500.0000  1500.0000   3000.0000  2500.0000  1550.0000 
  3100.0000  2500.0000  1500.0000   3100.0000  2500.0000  1550.0000 
  3200.0000  2500.0000  1500.0000   3200.0000  2500.0000  1550.0000 
  3300.0000  2500.0000  1500.0000   3300.0000  2500.0000  1550.0000 
  3400.0000  2500.0000  1500.0000   3400.0000  2500.0000  1550.0000 
  3500.0000  2500.0000  1500.0000   3500.0000  2500.0000  1550.0000 
  3600.0000  2500.0000  1500.0000   3600.0000  2500.0000  1550.0000 
  3700.0000  2500.0000  1500.0000   3700.0000  2500.0000  1550.0000 
  3800.0000  2500.0000  1500.0000   3800.0000  2500.0000  1550.0000 
  3900.0000  2500.0000  1500.0000   3900.0000  2500.0000  1550.0000 
  4000.0000  2500.0000  1502.8571   4000.0000  2500.0000  1552.8571 
  4100.0000  2500.0000  1505.7143   4100.0000  2500.0000  1555.7143 
  4200.0000  2500.0000  1508.5714   4200.0000  2500.0000  1558.5714 
  4300.0000  2500.0000  1511.4286   4300.0000  2500.0000  1561.4286 
  4400.0000  2500.0000  1514.2857   4400.0000  2500.0000  1564.2857 
  4500.0000  2500.0000  1517.1429   4500.0000  2500.0000  1567.1429 
  4600.0000  2500.0000  1520.0000   4600.0000  2500.0000  1570.0000 
  4700.0000  2500.0000  1520.5000   4700.0000  2500.0000  1570.5000 
  4800.0000  2500.0000  1521.0000   4800.0000  2500.0000  1571.0000 
  4900.0000  2500.0000  1521.5000   4900.0000  2500.0000  1571.5000 
  5000.0000  2500.0000  1522.0000   5000.0000  2500.0000  1572.0000 
  2000.0000  2600.0000  1500.0000   2000.0000  2600.0000  1550.0000 
  2100.0000  2600.0000  1500.0000   2100.0000  2600.0000  1550.0000 
  2200.0000  2600.0000  1500.0000   2200.0000  2600.0000  1550.0000 
  2300.0000  2600.0000  1500.0000   2300.0000  2600.0000  1550.0000 
  2400.0000  2600.0000  1500.0000   2400.0000  2600.0000  1550.0000 
  2500.0000  2600.0000  1500.0000   2500.0000  2600.0000  1550.0000 
  2600.0000  2600.0000  1500.0000   2600.0000  2600.0000  1550.0000 
  2700.0000  2600.0000  1500.0000   2700.0000  2600.0000  1550.0000 
  2800.0000  2600.0000  1500.0000   2800.0000  2600.0000  1550.0000 
  2900.0000  2600.0000  1500.0000   2900.0000  2600.0000  1550.0000 
  3000.0000  2600.0000  1500.0000   3000.0000  2600.0000  1550.0000 
  3100.0000  2600.0000  1500.0000   3100.0000  2600.0000  1550.0000 
  3200.0000  2600.0000  1500.0000   3200.0000  2600.0000  1550.0000 
  3300.0000  2600.0000  1500.0000   3300.0000  2600.0000  1550.0000 
  3400.0000  2600.0000  1500.0000   3400.0000  2600.0000  1550.0000 
  3500.0000  2600.0000  1500.0000   3500.0000  2600.0000  1550.0000 
  3600.0000  2600.0000  1500.0000   3600.0000  2600.0000  1550.0000 
  3700.0000  2600.0000  1500.0000   3700.0000  2600.0000  1550.0000 
  3800.0000  2600.0000  1500.0000   3800.0000  2600.0000  1550.0000 
  3900.0000  2600.0000  1500.0000   3900.0000  2600.0000  1550.0000 
  4000.0000  2600.0000  1502.8571   4000.0000  2600.0000  1552.8571 
  4100.0000  2600.0000  1505.7143   4100.0000  2600.0000  1555.7143 
  4200.0000  2600.0000  1508.5714   4200.0000  2600.0000  1558.5714 
  4300.0000  2600.0000  1511.4286   4300.0000  2600.0000  1561.4286 
  4400.0000  2600.0000  1514.2857   4400.0000  2600.0000  1564.2857 
  4500.0000  2600.0000  1517.1429   4500.0000  2600.0000  1567.1429 
  4600.0000  2600.0000  1520.0000   4600.0000  2600.0000  1570.0000 
  4700.0000  2600.0000  1520.5000   4700.0000  2600.0000  1570.5000 
  4800.0000  2600.0000  1521.0000   4800.0000  2600.0000  1571.0000 
  4900.0000  2600.0000  1521.5000   4900.0000  2600.0000  1571.5000 
  5000.0000  2600.0000  1522.0000   5000.0000  2600.0000  1572.0000 
  2000.0000  2700.0000  1500.0000   2000.0000  2700.0000  1550.0000 
  2100.0000  2700.0000  1500.0000   2100.0000  2700.0000  1550.0000 
  2200.0000  2700.0000  1500.0000   2200.0000  2700.0000  1550.0000 
  2300.0000  2700.0000  1500.0000   2300.0000  2700.0000  1550.0000 
  2400.0000  2700.0000  1500.0000   2400.0000  2700.0000  1550.0000 
  2500.0000  2700.0000  1500.0000   2500.0000  2700.0000  1550.0000 
  2600.0000  2700.0000  1500.0000   2600.0000  2700.0000  1550.0000 
  2700.0000  2700.0000  1500.0000   2700.0000  2700.0000  1550.0000 
  2800.0000  2700.0000  1500.0000   2800.0000  2700.0000  1550.0000 
  2900.0000  2700.0000  1500.0000   2900.0000  2700.0000  1550.0000 
  3000.0000  2700.0000  1500.0000   3000.0000  2700.0000  1550.0000 
  3100.0000  2700.0000  1500.0000   3100.0000  2700.0000  1550.0000 
  3200.0000  2700.0000  1500.0000   3200.0000  2700.0000  1550.0000 
  3300.0000  2700.0000  1500.0000   3300.0000  2700.0000  1550.0000 
  3400.0000  2700.0000  1500.0000   3400.0000  2700.0000  1550.0000 
  3500.0000  2700.0000  1500.0000   3500.0000  2700.0000  1550.0000 
  3600.0000  2700.0000  1500.0000   3600.0000  2700.0000  1550.0000 
  3700.0000  2700.0000  1500.0000   3700.0000  2700.0000  1550.0000 
  3800.0000  2700.0000  1500.0000   3800.0000  2700.0000  1550.0000 
  3900.0000  2700.0000  1500.0000   3900.0000  2700.0000  1550.0000 
  4000.0000  2700.0000  1500.0000   4000.0000  2700.0000  1550.0000 
  4100.0000  2700.0000  1500.0000   4100.0000  2700.0000  1550.0000 
  4200.0000  2700.0000  1500.0000   4200.0000  2700.0000  1550.0000 
  4300.0000  2700.0000  1500.0000   4300.0000  2700.0000  1550.0000 
  4400.0000  2700.0000  1500.0000   4400.0000  2700.0000  1550.0000 
  4500.0000  2700.0000  1500.0000   4500.0000  2700.0000  1550.0000 
  4600.0000  2700.0000  1500.0000   4600.0000  2700.0000  1550.0000 
  4700.0000  2700.0000  1500.0000   4700.0000  2700.0000  1550.0000 
  4800.0000  2700.0000  1500.0000   4800.0000  2700.0000  1550.0000 
  4900.0000  2700.0000  1500.0000   4900.0000  2700.0000  1550.0000 
  5000.0000  2700.0000  1500.0000   5000.0000  2700.0000  1550.0000 
  2000.0000  2800.0000  1500.0000   2000.0000  2800.0000  1550.0000 
  2100.0000  2800.0000  1500.0000   2100.0000  2800.0000  1550.0000 
  2200.0000  2800.0000  1500.0000   2200.0000  2800.0000  1550.0000 
  2300.0000  2800.0000  1500.0000   2300.0000  2800.0000  1550.0000 
  2400.0000  2800.0000  1500.0000   2400.0000  2800.0000  1550.0000 
  2500.0000  2800.0000  1500.0000   2500.0000  2800.0000  1550.0000 
  2600.0000  2800.0000  1500.0000   2600.0000  2800.0000  1550.0000 
  2700.0000  2800.0000  1500.0000   2700.0000  2800.0000  1550.0000 
  2800.0000  2800.0000  1500.0000   2800.0000  2800.0000  1550.0000 
  2900.0000  2800.0000  1500.0000   2900.0000  2800.0000  1550.0000 
  3000.0000  2800.0000  1500.0000   3000.0000  2800.0000  1550.0000 
  3100.0000  2800.0000  1500.0000   3100.0000  2800.0000  1550.0000 
  3200.0000  2800.0000  1500.0000   3200.0000  2800.0000  1550.0000 
  3300.0000  2800.0000  1500.0000   3300.0000  2800.0000  1550.0000 
  3400.0000  2800.0000  1500.0000   3400.0000  2800.0000  1550.0000 
  3500.0000  2800.0000  1500.0000   3500.0000  2800.0000  1550.0000 
  3600.0000  2800.0000  1500.0000   3600.0000  2800.0000  1550.0000 
  3700.0000  2800.0000  1500.0000   3700.0000  2800.0000  1550.0000 
  3800.0000  2800.0000  1500.0000   3800.0000  2800.0000  1550.0000 
  3900.0000  2800.0000  1500.0000   3900.0000  2800.0000  1550.0000 
  4000.0000  2800.0000  1500.0000   4000.0000  2800.0000  1550.0000 
  4100.0000  2800.0000  1500.0000   4100.0000  2800.0000  1550.0000 
  4200.0000  2800.0000  1500.0000   4200.0000  2800.0000  1550.0000 
  4300.0000  2800.0000  1500.0000   4300.0000  2800.0000  1550.0000 
  4400.0000  2800.0000  1500.0000   4400.0000  2800.0000  1550.0000 
  4500.0000  2800.0000  1500.0000   4500.0000  2800.0000  1550.0000 
  4600.0000  2800.0000  1500.0000   4600.0000  2800.0000  1550.0000 
  4700.0000  2800.0000  1500.0000   4700.0000  2800.0000  1550.0000 
  4800.0000  2800.0000  1500.0000   4800.0000  2800.0000  1550.0000 
  4900.0000  2800.0000  1500.0000   4900.0000  2800.0000  1550.0000 
  5000.0000  2800.0000  1500.0000   5000.0000  2800.0000  1550.0000 
  2000.0000  2900.0000  1500.0000   2000.0000  2900.0000  1550.0000 
  2100.0000  2900.0000  1500.0000   2100.0000  2900.0000  1550.0000 
  2200.0000  2900.0000  1500.0000   2200.0000  2900.0000  1550.0000 
  2300.0000  2900.0000  1500.0000   2300.0000  2900.0000  1550.0000 
  2400.0000  2900.0000  1500.0000   2400.0000  2900.0000  1550.0000 
  2500.0000  2900.0000  1500.0000   2500.0000  2900.0000  1550.0000 
  2600.0000  2900.0000  1500.0000   2600.0000  2900.0000  1550.0000 
  2700.0000  2900.0000  1500.0000   2700.0000  2900.0000  1550.0000 
  2800.0000  2900.0000  1500.0000   2800.0000  2900.0000  1550.0000 
  2900.0000  2900.0000  1500.0000   2900.0000  2900.0000  1550.0000 
  3000.0000  2900.0000  1500.0000   3000.0000  2900.0000  1550.0000 
  3100.0000  2900.0000  1500.0000   3100.0000  2900.0000  1550.0000 
  3200.0000  2900.0000  1500.0000   3200.0000  2900.0000  1550.0000 
  3300.0000  2900.0000  1500.0000   3300.0000  2900.0000  1550.0000 
  3400.0000  2900.0000  1500.0000   3400.0000  2900.0000  1550.0000 
  3500.0000  2900.0000  1500.0000   3500.0000  2900.0000  1550.0000 
  3600.0000  2900.0000  1500.0000   3600.0000  2900.0000  1550.0000 
  3700.0000  2900.0000  1500.0000   3700.0000  2900.0000  1550.0000 
  3800.0000  2900.0000  1500.0000   3800.0000  2900.0000  1550.0000 
  3900.0000  2900.0000  1500.0000   3900.0000  2900.0000  1550.0000 
  4000.0000  2900.0000  1500.0000   4000.0000  2900.0000  1550.0000 
  4100.0000  2900.0000  1500.0000   4100.0000  2900.0000  1550.0000 
  4200.0000  2900.0000  1500.0000   4200.0000  2900.0000  1550.0000 
  4300.0000  2900.0000  1500.0000   4300.0000  2900.0000  1550.0000 
  4400.0000  2900.0000  1500.0000   4400.0000  2900.0000  1550.0000 
  4500.0000  2900.0000  1500.0000   4500.0000  2900.0000  1550.0000 
  4600.0000  2900.0000  1500.0000   4600.0000  2900.0000  1550.0000 
  4700.0000  2900.0000  1500.0000   4700.0000  2900.0000  1550.0000 
  4800.0000  2900.0000  1500.0000   4800.0000  2900.0000  1550.0000 
  4900.0000  2900.0000  1500.0000   4900.0000  2900.0000  1550.0000 
  5000.0000  2900.0000  1500.0000   5000.0000  2900.0000  1550.0000 
  2000.0000  3000.0000  1500.0000   2000.0000  3000.0000  1550.0000 
  2100.0000  3000.0000  1500.0000   2100.0000  3000.0000  1550.0000 
  2200.0000  3000.0000  1500.0000   2200.0000  3000.0000  1550.0000 
  2300.0000  3000.0000  1500.0000   2300.0000  3000.0000  1550.0000 
  2400.0000  3000.0000  1500.0000   2400.0000  3000.0000  1550.0000 
  2500.0000  3000.0000  1500.0000   2500.0000  3000.0000  1550.0000 
  2600.0000  3000.0000  1500.0000   2600.0000  3000.0000  1550.0000 
  2700.0000  3000.0000  1500.0000   2700.0000  3000.0000  1550.0000 
  2800.0000  3000.0000  1500.0000   2800.0000  3000.0000  1550.0000 
  2900.0000  3000.0000  1500.0000   2900.0000  3000.0000  1550.0000 
  3000.0000  3000.0000  1500.0000   3000.0000  3000.0000  1550.0000 
  3100.0000  3000.0000  1500.0000   3100.0000  3000.0000  1550.0000 
  3200.0000  3000.0000  1500.0000   3200.0000  3000.0000  1550.0000 
  3300.0000  3000.0000  1500.0000   3300.0000  3000.0000  1550.0000 
  3400.0000  3000.0000  1500.0000   3400.0000  3000.0000  1550.0000 
  3500.0000  3000.0000  1500.0000   3500.0000  3000.0000  1550.0000 
  3600.0000  3000.0000  1500.0000   3600.0000  3000.0000  1550.0000 
  3700.0000  3000.0000  1500.0000   3700.0000  3000.0000  1550.0000 
  3800.0000  3000.0000  1500.0000   3800.0000  3000.0000  1550.0000 
  3900.0000  3000.0000  1500.0000   3900.0000  3000.0000  1550.0000 
  4000.0000  3000.0000  1500.0000   4000.0000  3000.0000  1550.0000 
  4100.0000  3000.0000  1500.0000   4100.0000  3000.0000  1550.0000 
  4200.0000  3000.0000  1500.0000   4200.0000  3000.0000  1550.0000 
  4300.0000  3000.0000  1500.0000   4300.0000  3000.0000  1550.0000 
  4400.0000  3000.0000  1500.0000   4400.0000  3000.0000  1550.0000 
  4500.0000  3000.0000  1500.0000   4500.0000  3000.0000  1550.0000 
  4600.0000  3000.0000  1500.0000   4600.0000  3000.0000  1550.0000 
  4700.0000  3000.0000  1500.0000   4700.0000  3000.0000  1550.0000 
  4800.0000  3000.0000  1500.0000   4800.0000  3000.0000  1550.0000 
  4900.0000  3000.0000  1500.0000   4900.0000  3000.0000  1550.0000 
  5000.0000  3000.0000  1500.0000   5000.0000  3000.0000  1550.0000 
  2000.0000  3100.0000  1500.0000   2000.0000  3100.0000  1550.0000 
  2100.0000  3100.0000  1500.0000   2100.0000  3100.0000  1550.0000 
  2200.0000  3100.0000  1500.0000   2200.0000  3100.0000  1550.0000 
  2300.0000  3100.0000  1500.0000   2300.0000  3100.0000  1550.0000 
  2400.0000  3100.0000  1500.0000   2400.0000  3100.0000  1550.0000 
  2500.0000  3100.0000  1500.0000   2500.0000  3100.0000  1550.0000 
  2600.0000  3100.0000  1500.0000   2600.0000  3100.0000  1550.0000 
  2700.0000  3100.0000  1500.0000   2700.0000  3100.0000  1550.0000 
  2800.0000  3100.0000  1500.0000   2800.0000  3100.0000  1550.0000 
  2900.0000  3100.0000  1500.0000   2900.0000  3100.0000  1550.0000 
  3000.0000  3100.0000  1500.0000   3000.0000  3100.0000  1550.0000 
  3100.0000  3100.0000  1500.0000   3100.0000  3100.0000  1550.0000 
  3200.0000  3100.0000  1500.0000   3200.0000  3100.0000  1550.0000 
  3300.0000  3100.0000  1500.0000   3300.0000  3100.0000  1550.0000 
  3400.0000  3100.0000  1500.0000   3400.0000  3100.0000  1550.0000 
  3500.0000  3100.0000  1500.0000   3500.0000  3100.0000  1550.0000 
  3600.0000  3100.0000  1500.0000   3600.0000  3100.0000  1550.0000 
  3700.0000  3100.0000  1500.0000   3700.0000  3100.0000  1550.0000 
  3800.0000  3100.0000  1500.0000   3800.0000  3100.0000  1550.0000 
  3900.0000  3100.0000  1500.0000   3900.0000  3100.0000  1550.0000 
  4000.0000  3100.0000  1500.0000   4000.0000  3100.0000  1550.0000 
  4100.0000  3100.0000  1500.0000   4100.0000  3100.0000  1550.0000 
  4200.0000  3100.0000  1500.0000   4200.0000  3100.0000  1550.0000 
  4300.0000  3100.0000  1500.0000   4300.0000  3100.0000  1550.0000 
  4400.0000  3100.0000  1500.0000   4400.0000  3100.0000  1550.0000 
  4500.0000  3100.0000  1500.0000   4500.0000  3100.0000  1550.0000 
  4600.0000  3100.0000  1500.0000   4600.0000  3100.0000  1550.0000 
  4700.0000  3100.0000  1500.0000   4700.0000  3100.0000  1550.0000 
  4800.0000  3100.0000  1500.0000   4800.0000  3100.0000  1550.0000 
  4900.0000  3100.0000  1500.0000   4900.0000  3100.0000  1550.0000 
  5000.0000  3100.0000  1500.0000   5000.0000  3100.0000  1550.0000 
  2000.0000  3200.0000  1500.0000   2000.0000  3200.0000  1550.0000 
  2100.0000  3200.0000  1500.0000   2100.0000  3200.0000  1550.0000 
  2200.0000  3200.0000  1500.0000   2200.0000  3200.0000  1550.0000 
  2300.0000  3200.0000  1500.0000   2300.0000  3200.0000  1550.0000 
  2400.0000  3200.0000  1500.0000   2400.0000  3200.0000  1550.0000 
  2500.0000  3200.0000  1500.0000   2500.0000  3200.0000  1550.0000 
  2600.0000  3200.0000  1500.0000   2600.0000  3200.0000  1550.0000 
  2700.0000  3200.0000  1500.0000   2700.0000  3200.0000  1550.0000 
  2800.0000  3200.0000  1500.0000   2800.0000  3200.0000  1550.0000 
  2900.0000  3200.0000  1500.0000   2900.0000  3200.0000  1550.0000 
  3000.0000  3200.0000  1500.0000   3000.0000  3200.0000  1550.0000 
  3100.0000  3200.0000  1500.0000   3100.0000  3200.0000  1550.0000 
  3200.0000  3200.0000  1500.0000   3200.0000  3200.0000  1550.0000 
  3300.0000  3200.0000  1500.0000   3300.0000  3200.0000  1550.0000 
  3400.0000  3200.0000  1500.0000   3400.0000  3200.0000  1550.0000 
  3500.0000  3200.0000  1500.0000   3500.0000  3200.0000  1550.0000 
  3600.0000  3200.0000  1500.0000   3600.0000  3200.0000  1550.0000 
  3700.0000  3200.0000  1500.0000   3700.0000  3200.0000  1550.0000 
  3800.0000  3200.0000  1500.0000   3800.0000  3200.0000  1550.0000 
  3900.0000  3200.0000  1500.0000   3900.0000  3200.0000  1550.0000 
  4000.0000  3200.0000  1500.0000   4000.0000  3200.0000  1550.0000 
  4100.0000  3200.0000  1500.0000   4100.0000  3200.0000  1550.0000 
  4200.0000  3200.0000  1500.0000   4200.0000  3200.0000  1550.0000 
  4300.0000  3200.0000  1500.0000   4300.0000  3200.0000  1550.0000 
  4400.0000  3200.0000  1500.0000   4400.0000  3200.0000  1550.0000 
  4500.0000  3200.0000  1500.0000   4500.0000  3200.0000  1550.0000 
  4600.0000  3200.0000  1500.0000   4600.0000  3200.0000  1550.0000 
  4700.0000  3200.0000  1500.0000   4700.0000  3200.0000  1550.0000 
  4800.0000  3200.0000  1500.0000   4800.0000  3200.0000  1550.0000 
  4900.0000  3200.0000  1500.0000   4900.0000  3200.0000  1550.0000 
  5000.0000  3200.0000  1500.0000   5000.0000  3200.0000  1550.0000 
  2000.0000  3300.0000  1500.0000   2000.0000  3300.0000  1550.0000 
  2100.0000  3300.0000  1500.0000   2100.0000  3300.0000  1550.0000 
  2200.0000  3300.0000  1500.0000   2200.0000  3300.0000  1550.0000 
  2300.0000  3300.0000  1500.0000   2300.0000  3300.0000  1550.0000 
  2400.0000  3300.0000  1500.0000   2400.0000  3300.0000  1550.0000 
  2500.0000  3300.0000  1500.0000   2500.0000  3300.0000  1550.0000 
  2600.0000  3300.0000  1500.0000   2600.0000  3300.0000  1550.0000 
  2700.0000  3300.0000  1500.0000   2700.0000  3300.0000  1550.0000 
  2800.0000  3300.0000  1500.0000   2800.0000  3300.0000  1550.0000 
  2900.0000  3300.0000  1500.0000   2900.0000  3300.0000  1550.0000 
  3000.0000  3300.0000  1500.0000   3000.0000  3300.0000  1550.0000 
  3100.0000  3300.0000  1500.0000   3100.0000  3300.0000  1550.0000 
  3200.0000  3300.0000  1500.0000   3200.0000  3300.0000  1550.0000 
  3300.0000  3300.0000  1500.0000   3300.0000  3300.0000  1550.0000 
  3400.0000  3300.0000  1500.0000   3400.0000  3300.0000  1550.0000 
  3500.0000  3300.0000  1500.0000   3500.0000  3300.0000  1550.0000 
  3600.0000  3300.0000  1500.0000   3600.0000  3300.0000  1550.0000 
  3700.0000  3300.0000  1500.0000   3700.0000  3300.0000  1550.0000 
  3800.0000  3300.0000  1500.0000   3800.0000  3300.0000  1550.0000 
  3900.0000  3300.0000  1500.0000   3900.0000  3300.0000  1550.0000 
  4000.0000  3300.0000  1500.0000   4000.0000  3300.0000  1550.0000 
  4100.0000  3300.0000  1500.0000   4100.0000  3300.0000  1550.0000 
  4200.0000  3300.0000  1500.0000   4200.0000  3300.0000  1550.0000 
  4300.0000  3300.0000  1500.0000   4300.0000  3300.0000  1550.0000 
  4400.0000  3300.0000  1500.0000   4400.0000  3300.0000  1550.0000 
  4500.0000  3300.0000  1500.0000   4500.0000  3300.0000  1550.0000 